<?xml version="1.0"?>
<VTKFile type="UnstructuredGrid"  version="0.1"  >
<UnstructuredGrid>
<Piece  NumberOfPoints="5980" NumberOfCells="11725">
<Points>
<DataArray  type="Float64"  NumberOfComponents="3"  format="ascii">0 362 0  601 366 0  0 329 0  601 333 0  10 361 0  20 358 0  30 351 0  35 349 0  46 336 0  54 317 0  54 117 0  58 104 0  63 95 0  69 88 0  79 81 0  92 78 0  110 78 0  117 80 0  128 85 0  135 91 0  145 107 0  148 115 0  150 125 0  150 325 0  156 337 0  166 349 0  175 353 0  180 357 0  186 359 0  194 361 0  209 361 0  216 360 0  229 354 0  236 345 0  240 342 0  245 333 0  247 326 0  250 322 0  253 309 0  253 118 0  257 105 0  263 94 0  272 85 0  280 81 0  320 81 0  330 87 0  337 94 0  343 106 0  346 115 0  347 129 0  349 135 0  349 318 0  352 329 0  357 340 0  365 349 0  377 356 0  384 359 0  392 361 0  409 361 0  420 358 0  428 354 0  438 343 0  444 335 0  448 325 0  452 320 0  452 117 0  458 102 0  463 93 0  471 85 0  479 81 0  490 78 0  505 78 0  516 81 0  528 88 0  532 93 0  536 95 0  541 102 0  547 119 0  547 315 0  549 324 0  555 337 0  558 339 0  562 347 0  571 355 0  583 362 0  591 365 0  601 441 0  0 441 0  11 329 0  20 322 0  24 308 0  24 146 0  28 119 0  40 84 0  46 73 0  54 64 0  67 57 0  78 53 0  101 52 0  124 57 0  145 67 0  155 75 0  164 90 0  170 108 0  174 126 0  177 148 0  177 304 0  184 324 0  193 329 0  211 329 0  220 320 0  222 313 0  222 128 0  226 105 0  232 89 0  243 71 0  256 59 0  271 51 0  283 49 0  311 49 0  322 51 0  334 55 0  354 67 0  366 81 0  368 90 0  376 108 0  377 135 0  377 307 0  382 322 0  394 330 0  408 329 0  415 324 0  422 308 0  422 116 0  426 101 0  436 79 0  449 63 0  465 53 0  479 49 0  504 48 0  523 51 0  534 55 0  548 63 0  556 71 0  570 96 0  576 120 0  576 132 0  576 308 0  582 321 0  590 329 0  0 0 0  601 0 0  150 225 0  300.5 441 0  422 212 0  253 213.5 0  349 226.5 0  452 218.5 0  547 217 0  0 164.5 0  222 220.5 0  300.5 0 0  601 166.5 0  54 217 0  177 226 0  150 175 0  150 275 0  150.25 441 0  450.75 441 0  377 221 0  349 272.25 0  452 269.25 0  576 220 0  547 168 0  24 227 0  0 246.75 0  0 82.25 0  450.75 0 0  150.25 0 0  601 249.75 0  601 83.25 0  54 167 0  177 187 0  177 265 0  377 264 0  422 260 0  576 176 0  54 267 0  24 186.5 0  24 267.5 0  0 287.875 0  0 205.625 0  0 123.375 0  525.875 0 0  375.625 0 0  75.125 0 0  225.375 0 0  576 264 0  601 291.375 0  601 208.125 0  601 124.875 0  222 266.75 0  547 266 0  601 312.1875 0  253 261.25 0  452 167.75 0  422 164 0  253 165.75 0  222 174.25 0  377 178 0  349 180.75 0  452 142.375 0  422 140 0  576 242 0  547 241.5 0  422 188 0  452 193.125 0  253 285.125 0  222 289.875 0  377 156.5 0  349 157.875 0  452 243.875 0  422 236 0  253 237.375 0  222 243.625 0  547 290.5 0  576 286 0  24 287.75 0  54 292 0  452 294.625 0  547 192.5 0  576 198 0  222 197.375 0  253 189.625 0  54 192 0  54 242 0  150 200 0  54 142 0  150 150 0  150 300 0  150 250 0  349 203.625 0  377 199.5 0  547 143.5 0  222 151.125 0  253 141.875 0  422 284 0  377 242.5 0  349 249.375 0  349 295.125 0  300 81 0  576 154 0  377 285.5 0  24 206.75 0  24 166.25 0  24 247.25 0  177 284.5 0  177 245.5 0  177 206.5 0  177 167.5 0  436.6166666666667 128 0  34 101.5 0  436.1440104166667 152 0  560.7241379310345 253.75 0  40.4 154.5 0  39.17291666666667 277.625 0  238.9652217741935 297.0625 0  290 65.796875 0  435.734375 176 0  561.6853448275862 231 0  239.1300403225806 273.1875 0  40.728125 254.5 0  376.5 121.5 0  40.7875 179.5 0  201.5 344.75 0  235.9364919354839 255.1875 0  435.3877604166667 200 0  362.4720982142857 146.4375 0  235.7988911290323 232.0625 0  562.1896551724138 275 0  239.515625 201.5625 0  435.1041666666667 224 0  26 132.5 0  559.698275862069 204.75 0  239.6078629032258 177.6875 0  362.01171875 169.3125 0  402.1213808463252 345.1993318485523 0  563 83.5 0  37.23927392739274 321.1270627062706 0  378.9243792325057 338.9153498871332 0  239.6819556451613 153.8125 0  150 312.5 0  166.8055555555555 318.75 0  601 349.5 0  434.88359375 248 0  37.86666666666667 297.875 0  239.7379032258065 129.9375 0  150 137.5 0  163.1203703703704 235.75 0  562.8577586206897 297 0  306.9897139467017 65.51208916917872 0  363.9207589285714 188.75 0  37.6875 237.125 0  529.7191780821918 71.26712328767124 0  0 345.5 0  54 204.5 0  37.64791666666667 196.625 0  434.7260416666667 272 0  563.0646551724138 187 0  574.8260869565217 336.1739130434783 0  365.6052631578947 319.1315789473684 0  565.3456375838927 320.8020134228188 0  491.5 48.5 0  452.8973941368078 79.44788273615634 0  359.6522491349481 104.4878892733564 0  431.5841121495327 321.7242990654206 0  439.1830723670047 306.209110916646 0  364.2798549107143 210.25 0  150 212.5 0  420.6818181818182 339.3545454545455 0  468 69 0  268.9705882352941 68.94117647058823 0  573 108 0  556.8770491803278 105.655737704918 0  511.4047619047619 62.76984126984127 0  361.0357142857143 237.9375 0  332.7441860465116 71.09302325581396 0  547 155.75 0  561.9224137931035 161.875 0  164.1481481481482 157.75 0  442.2002801120448 95.09103641456582 0  54 129.5 0  349.4875444839857 83.01067615658363 0  437.5543087992677 287.7473928020677 0  547 131.25 0  38.80505786361717 212.4455623503888 0  364.5611321310504 253.6986658345702 0  247.3247978436658 92.58625336927224 0  547.299043062201 84.08253588516746 0  563.5818965517242 143 0  360.666468489893 120.9881093935791 0  150 287.5 0  164.3611111111111 293.75 0  561.3060344827586 125.125 0  482.8320964749536 64.13265306122449 0  241.5 107.3461538461538 0  364.9520089285714 274.75 0  164.75 255.25 0  26.84545454545454 335.8636363636364 0  171.6738197424893 334.1051502145923 0  221.1498516320475 340.6721068249258 0  238.003877752549 216.8547391191756 0  437.1497797356828 112.0066079295154 0  256.7219904729131 79.26348654529295 0  365.041015625 296.25 0  66.75757575757575 72.12121212121212 0  165 216.25 0  186.3461538461538 342.7596153846154 0  165.0648148148148 196.75 0  40.50892857142857 135.75 0  165.1666666666667 177.25 0  237.5795530502538 312.585834954766 0  587.5739298880021 343.5030132308281 0  149.4324324324324 88.54054054054055 0  175.5 137 0  165.2592592592593 274.75 0  82.58174386920982 66.85422343324251 0  497.0392296026419 61.79075132743768 0  14.69769549658773 344.2336872054597 0  224 116.5 0  134.5 62 0  230.8010335664673 329.767243141409 0  297 49 0  362.7308793082775 224.1023144972781 0  53.91379310344828 84.45297805642633 0  222 139.5625 0  101 66.55769230769231 0  452 256.5625 0  349 306.5625 0  222 162.6875 0  161.7604166666667 131.25 0  164.1394070070369 144.3932166295844 0  150 187.5 0  233.1171324270549 189.6001020961621 0  319.972720423124 67.81445485590643 0  560.1421616119783 217.9166072357707 0  160.9444444444445 117.6111111111111 0  46.68598685406268 96.1645262009983 0  452 231.1875 0  40.65857787810384 113.5615124153499 0  139.421052631579 78.75877192982456 0  54 229.5 0  349 283.6875 0  422 296 0  364.0801700601018 133.5346577326958 0  157.7162162162162 102.0945945945946 0  253 225.4375 0  452 281.9375 0  452 307.3125 0  452 205.8125 0  452 180.4375 0  452 155.0625 0  452 129.6875 0  116.82 67.38 0  222 208.9375 0  563.4880478969827 174.3922870895918 0  161.7499523537259 306.6248194735616 0  54 304.5 0  41.46796911421912 166.9864496037296 0  150 262.5 0  150 162.5 0  150 237.5 0  54 179.5 0  54 279.5 0  54 154.5 0  54 254.5 0  440.591849054665 212.15625 0  36.29234892682296 224.6968014507764 0  241.6594262451068 243.5905374111463 0  547 302.75 0  547 278.25 0  547 180.25 0  547 204.75 0  547 229.25 0  547 253.75 0  349 260.8125 0  431 90 0  278.5234905065054 60.93638422026333 0  389.1820992062378 347.0067655068618 0  439.749279844803 140.0663479651171 0  439.9073032827354 164.0677282761885 0  440.1778713137215 188.0666771440839 0  434.0384781510748 235.9912193409017 0  434.0255348113219 259.9948842648362 0  422 272 0  422 248 0  422 224 0  422 200 0  422 176 0  422 152 0  422 128 0  558.8454134077728 309.4504140192618 0  234.0321995900235 285.090376497068 0  128.7445336201738 72.79193341439694 0  350.4590192531804 95.69487295466872 0  240.9872127578247 165.7541656521722 0  240.993642966621 141.8780081954475 0  253 129.9375 0  253 153.8125 0  253 177.6875 0  253 201.5625 0  253 273.1875 0  253 297.0625 0  253 249.3125 0  367.6013100392875 332.1631007681751 0  89.5 52.5 0  43.5725618515381 310.75 0  555.5042586587917 93.35241689140277 0  112.5 54.5 0  344 61 0  377 231.75 0  222 301.4375 0  36.0968991705817 265.8033352638519 0  446.9610150046976 105.7242065721715 0  222 278.3125 0  222 185.8125 0  222 232.0625 0  222 255.1875 0  365.5734839564284 307.6846161102337 0  365.2568430909854 157.9356782067792 0  349 237.9375 0  349 215.0625 0  349 192.1875 0  349 169.3125 0  349 146.4375 0  558.6447014158218 242.2668361288636 0  241.6461940015551 118.721950545947 0  576 209 0  430.9527713770873 333.5199219662516 0  43.57189427787375 124.6759095973614 0  24 257.375 0  237.5 80 0  564.7683480894688 285.9318339763123 0  576 143 0  576 165 0  576 187 0  576 297 0  576 275 0  576 231 0  576 253 0  413.3364421268836 348.4211366851948 0  159.4733693336321 206.4815226654718 0  590.9431959016093 353.9875457429738 0  536.5083558295551 80.41941529258848 0  24 216.875 0  344.1049577654186 72.85241148209352 0  366.0696306767981 199.4671080814543 0  360.5056435033603 285.5185915066799 0  377 274.75 0  377 253.25 0  377 210.25 0  377 188.75 0  377 167.25 0  377 145.75 0  377 296.25 0  24 176.375 0  522.734818162964 62.33528527730888 0  564.8275862068965 264.1425386444708 0  160.4171506000774 327.2914246999613 0  180.5 314 0  358.0681474713521 266.53125 0  159.6381225648196 167.762165874969 0  231.6881990158793 146.8946002096566 0  544.8915177622409 73.44956920734676 0  212.5755925087115 348.7375513851596 0  474.0846476601291 58.29626681045185 0  557.2755032005102 151.9559948597436 0  452.5006536887383 93.05591871596572 0  314.8953333727508 58.68909148555313 0  231.8244337486018 170.7414439526377 0  56.44958858771432 74.23296763352384 0  442.1980162444175 316.258412995534 0  
[...]
<PointData  Scalars="f_12"> 
<DataArray  type="Float64"  Name="f_12"  format="ascii">0.0000000000000000e+00  0.0000000000000000e+00  0.0000000000000000e+00  0.0000000000000000e+00  0.0000000000000000e+00  0.0000000000000000e+00  0.0000000000000000e+00  0.0000000000000000e+00  0.0000000000000000e+00  0.0000000000000000e+00  0.0000000000000000e+00  0.0000000000000000e+00  0.0000000000000000e+00  0.0000000000000000e+00  0.0000000000000000e+00  0.0000000000000000e+00  0.0000000000000000e+00  0.0000000000000000e+00  0.0000000000000000e+00  0.0000000000000000e+00  0.0000000000000000e+00  0.0000000000000000e+00  0.0000000000000000e+00  0.0000000000000000e+00  0.0000000000000000e+00  0.0000000000000000e+00  0.0000000000000000e+00  0.0000000000000000e+00  0.0000000000000000e+00  0.0000000000000000e+00  0.0000000000000000e+00  0.0000000000000000e+00  0.0000000000000000e+00  0.0000000000000000e+00  0.0000000000000000e+00  0.0000000000000000e+00  0.0000000000000000e+00  0.0000000000000000e+00  0.0000000000000000e+00  0.0000000000000000e+00  0.0000000000000000e+00  0.0000000000000000e+00  0.0000000000000000e+00  0.0000000000000000e+00  0.0000000000000000e+00  0.0000000000000000e+00  0.0000000000000000e+00  0.0000000000000000e+00  0.0000000000000000e+00  0.0000000000000000e+00  0.0000000000000000e+00  0.0000000000000000e+00  0.0000000000000000e+00  0.0000000000000000e+00  0.0000000000000000e+00  0.0000000000000000e+00  0.0000000000000000e+00  0.0000000000000000e+00  0.0000000000000000e+00  0.0000000000000000e+00  0.0000000000000000e+00  0.0000000000000000e+00  0.0000000000000000e+00  0.0000000000000000e+00  0.0000000000000000e+00  0.0000000000000000e+00  0.0000000000000000e+00  0.0000000000000000e+00  0.0000000000000000e+00  0.0000000000000000e+00  0.0000000000000000e+00  0.0000000000000000e+00  0.0000000000000000e+00  0.0000000000000000e+00  0.0000000000000000e+00  0.0000000000000000e+00  0.0000000000000000e+00  0.0000000000000000e+00  0.0000000000000000e+00  0.0000000000000000e+00  0.0000000000000000e+00  0.0000000000000000e+00  0.0000000000000000e+00  0.0000000000000000e+00  0.0000000000000000e+00  0.0000000000000000e+00  0.0000000000000000e+00  0.0000000000000000e+00  0.0000000000000000e+00  0.0000000000000000e+00  0.0000000000000000e+00  0.0000000000000000e+00  0.0000000000000000e+00  0.0000000000000000e+00  0.0000000000000000e+00  0.0000000000000000e+00  0.0000000000000000e+00  0.0000000000000000e+00  0.0000000000000000e+00  0.0000000000000000e+00  0.0000000000000000e+00  0.0000000000000000e+00  0.0000000000000000e+00  0.0000000000000000e+00  0.0000000000000000e+00  0.0000000000000000e+00  0.0000000000000000e+00  0.0000000000000000e+00  0.0000000000000000e+00  0.0000000000000000e+00  0.0000000000000000e+00  0.0000000000000000e+00  0.0000000000000000e+00  0.0000000000000000e+00  0.0000000000000000e+00  0.0000000000000000e+00  0.0000000000000000e+00  0.0000000000000000e+00  0.0000000000000000e+00  0.0000000000000000e+00  0.0000000000000000e+00  0.0000000000000000e+00  0.0000000000000000e+00  0.0000000000000000e+00  0.0000000000000000e+00  0.0000000000000000e+00  0.0000000000000000e+00  0.0000000000000000e+00  0.0000000000000000e+00  0.0000000000000000e+00  0.0000000000000000e+00  0.0000000000000000e+00  0.0000000000000000e+00  0.0000000000000000e+00  0.0000000000000000e+00  0.0000000000000000e+00  0.0000000000000000e+00  0.0000000000000000e+00  0.0000000000000000e+00  0.0000000000000000e+00  0.0000000000000000e+00  0.0000000000000000e+00  0.0000000000000000e+00  0.0000000000000000e+00  0.0000000000000000e+00  0.0000000000000000e+00  0.0000000000000000e+00  0.0000000000000000e+00  0.0000000000000000e+00  0.0000000000000000e+00  0.0000000000000000e+00  0.0000000000000000e+00  0.0000000000000000e+00  0.0000000000000000e+00  0.0000000000000000e+00  0.0000000000000000e+00  0.0000000000000000e+00  0.0000000000000000e+00  0.0000000000000000e+00  0.0000000000000000e+00  0.0000000000000000e+00  0.0000000000000000e+00  0.0000000000000000e+00  0.0000000000000000e+00  0.0000000000000000e+00  0.0000000000000000e+00  0.0000000000000000e+00  0.0000000000000000e+00  0.0000000000000000e+00  0.0000000000000000e+00  0.0000000000000000e+00  0.0000000000000000e+00  0.0000000000000000e+00  0.0000000000000000e+00  0.0000000000000000e+00  0.0000000000000000e+00  0.0000000000000000e+00  0.0000000000000000e+00  0.0000000000000000e+00  0.0000000000000000e+00  0.0000000000000000e+00  0.0000000000000000e+00  0.0000000000000000e+00  0.0000000000000000e+00  0.0000000000000000e+00  0.0000000000000000e+00  0.0000000000000000e+00  0.0000000000000000e+00  0.0000000000000000e+00  0.0000000000000000e+00  0.0000000000000000e+00  0.0000000000000000e+00  0.0000000000000000e+00  0.0000000000000000e+00  0.0000000000000000e+00  0.0000000000000000e+00  0.0000000000000000e+00  0.0000000000000000e+00  0.0000000000000000e+00  0.0000000000000000e+00  0.0000000000000000e+00  0.0000000000000000e+00  0.0000000000000000e+00  0.0000000000000000e+00  0.0000000000000000e+00  0.0000000000000000e+00  0.0000000000000000e+00  0.0000000000000000e+00  0.0000000000000000e+00  0.0000000000000000e+00  0.0000000000000000e+00  0.0000000000000000e+00  0.0000000000000000e+00  0.0000000000000000e+00  0.0000000000000000e+00  0.0000000000000000e+00  0.0000000000000000e+00  0.0000000000000000e+00  0.0000000000000000e+00  0.0000000000000000e+00  0.0000000000000000e+00  0.0000000000000000e+00  0.0000000000000000e+00  0.0000000000000000e+00  0.0000000000000000e+00  0.0000000000000000e+00  0.0000000000000000e+00  0.0000000000000000e+00  0.0000000000000000e+00  0.0000000000000000e+00  0.0000000000000000e+00  0.0000000000000000e+00  0.0000000000000000e+00  0.0000000000000000e+00  0.0000000000000000e+00  0.0000000000000000e+00  0.0000000000000000e+00  0.0000000000000000e+00  0.0000000000000000e+00  0.0000000000000000e+00  0.0000000000000000e+00  0.0000000000000000e+00  0.0000000000000000e+00  0.0000000000000000e+00  0.0000000000000000e+00  0.0000000000000000e+00  0.0000000000000000e+00  0.0000000000000000e+00  0.0000000000000000e+00  0.0000000000000000e+00  0.0000000000000000e+00  0.0000000000000000e+00  0.0000000000000000e+00  0.0000000000000000e+00  0.0000000000000000e+00  0.0000000000000000e+00  0.0000000000000000e+00  0.0000000000000000e+00  0.0000000000000000e+00  0.0000000000000000e+00  0.0000000000000000e+00  0.0000000000000000e+00  0.0000000000000000e+00  0.0000000000000000e+00  0.0000000000000000e+00  0.0000000000000000e+00  0.0000000000000000e+00  0.0000000000000000e+00  0.0000000000000000e+00  0.0000000000000000e+00  0.0000000000000000e+00  0.0000000000000000e+00  0.0000000000000000e+00  0.0000000000000000e+00  0.0000000000000000e+00  0.0000000000000000e+00  0.0000000000000000e+00  0.0000000000000000e+00  0.0000000000000000e+00  0.0000000000000000e+00  0.0000000000000000e+00  0.0000000000000000e+00  0.0000000000000000e+00  0.0000000000000000e+00  0.0000000000000000e+00  0.0000000000000000e+00  0.0000000000000000e+00  0.0000000000000000e+00  0.0000000000000000e+00  0.0000000000000000e+00  0.0000000000000000e+00  0.0000000000000000e+00  0.0000000000000000e+00  0.0000000000000000e+00  0.0000000000000000e+00  0.0000000000000000e+00  0.0000000000000000e+00  0.0000000000000000e+00  0.0000000000000000e+00  0.0000000000000000e+00  0.0000000000000000e+00  0.0000000000000000e+00  0.0000000000000000e+00  0.0000000000000000e+00  0.0000000000000000e+00  0.0000000000000000e+00  0.0000000000000000e+00  0.0000000000000000e+00  0.0000000000000000e+00  0.0000000000000000e+00  0.0000000000000000e+00  0.0000000000000000e+00  0.0000000000000000e+00  0.0000000000000000e+00  0.0000000000000000e+00  0.0000000000000000e+00  0.0000000000000000e+00  0.0000000000000000e+00  0.0000000000000000e+00  0.0000000000000000e+00  0.0000000000000000e+00  0.0000000000000000e+00  0.0000000000000000e+00  0.0000000000000000e+00  0.0000000000000000e+00  0.0000000000000000e+00  0.0000000000000000e+00  0.0000000000000000e+00  0.0000000000000000e+00  0.0000000000000000e+00  0.0000000000000000e+00  0.0000000000000000e+00  0.0000000000000000e+00  0.0000000000000000e+00  0.0000000000000000e+00  0.0000000000000000e+00  0.0000000000000000e+00  0.0000000000000000e+00  0.0000000000000000e+00  0.0000000000000000e+00  0.0000000000000000e+00  0.0000000000000000e+00  0.0000000000000000e+00  0.0000000000000000e+00  0.0000000000000000e+00  0.0000000000000000e+00  0.0000000000000000e+00  0.0000000000000000e+00  0.0000000000000000e+00  0.0000000000000000e+00  0.0000000000000000e+00  0.0000000000000000e+00  0.0000000000000000e+00  0.0000000000000000e+00  0.0000000000000000e+00  0.0000000000000000e+00  0.0000000000000000e+00  0.0000000000000000e+00  0.0000000000000000e+00  0.0000000000000000e+00  0.0000000000000000e+00  0.0000000000000000e+00  0.0000000000000000e+00  0.0000000000000000e+00  0.0000000000000000e+00  0.0000000000000000e+00  0.0000000000000000e+00  0.0000000000000000e+00  0.0000000000000000e+00  0.0000000000000000e+00  0.0000000000000000e+00  0.0000000000000000e+00  0.0000000000000000e+00  0.0000000000000000e+00  0.0000000000000000e+00  0.0000000000000000e+00  0.0000000000000000e+00  0.0000000000000000e+00  0.0000000000000000e+00  0.0000000000000000e+00  0.0000000000000000e+00  0.0000000000000000e+00  0.0000000000000000e+00  0.0000000000000000e+00  0.0000000000000000e+00  0.0000000000000000e+00  0.0000000000000000e+00  0.0000000000000000e+00  0.0000000000000000e+00  0.0000000000000000e+00  0.0000000000000000e+00  0.0000000000000000e+00  0.0000000000000000e+00  0.0000000000000000e+00  0.0000000000000000e+00  0.0000000000000000e+00  0.0000000000000000e+00  0.0000000000000000e+00  0.0000000000000000e+00  0.0000000000000000e+00  0.0000000000000000e+00  0.0000000000000000e+00  0.0000000000000000e+00  0.0000000000000000e+00  0.0000000000000000e+00  0.0000000000000000e+00  0.0000000000000000e+00  0.0000000000000000e+00  0.0000000000000000e+00  0.0000000000000000e+00  0.0000000000000000e+00  0.0000000000000000e+00  0.0000000000000000e+00  0.0000000000000000e+00  0.0000000000000000e+00  0.0000000000000000e+00  0.0000000000000000e+00  0.0000000000000000e+00  0.0000000000000000e+00  0.0000000000000000e+00  0.0000000000000000e+00  0.0000000000000000e+00  0.0000000000000000e+00  0.0000000000000000e+00  0.0000000000000000e+00  0.0000000000000000e+00  0.0000000000000000e+00  0.0000000000000000e+00  0.0000000000000000e+00  0.0000000000000000e+00  0.0000000000000000e+00  0.0000000000000000e+00  0.0000000000000000e+00  0.0000000000000000e+00  0.0000000000000000e+00  0.0000000000000000e+00  0.0000000000000000e+00  0.0000000000000000e+00  0.0000000000000000e+00  0.0000000000000000e+00  0.0000000000000000e+00  0.0000000000000000e+00  0.0000000000000000e+00  0.0000000000000000e+00  0.0000000000000000e+00  0.0000000000000000e+00  0.0000000000000000e+00  0.0000000000000000e+00  0.0000000000000000e+00  0.0000000000000000e+00  0.0000000000000000e+00  0.0000000000000000e+00  0.0000000000000000e+00  0.0000000000000000e+00  0.0000000000000000e+00  0.0000000000000000e+00  0.0000000000000000e+00  0.0000000000000000e+00  0.0000000000000000e+00  0.0000000000000000e+00  0.0000000000000000e+00  0.0000000000000000e+00  0.0000000000000000e+00  0.0000000000000000e+00  0.0000000000000000e+00  0.0000000000000000e+00  0.0000000000000000e+00  0.0000000000000000e+00  0.0000000000000000e+00  0.0000000000000000e+00  0.0000000000000000e+00  0.0000000000000000e+00  0.0000000000000000e+00  0.0000000000000000e+00  0.0000000000000000e+00  0.0000000000000000e+00  0.0000000000000000e+00  0.0000000000000000e+00  0.0000000000000000e+00  0.0000000000000000e+00  0.0000000000000000e+00  0.0000000000000000e+00  0.0000000000000000e+00  0.0000000000000000e+00  0.0000000000000000e+00  0.0000000000000000e+00  0.0000000000000000e+00  0.0000000000000000e+00  0.0000000000000000e+00  0.0000000000000000e+00  0.0000000000000000e+00  0.0000000000000000e+00  0.0000000000000000e+00  0.0000000000000000e+00  0.0000000000000000e+00  0.0000000000000000e+00  0.0000000000000000e+00  0.0000000000000000e+00  0.0000000000000000e+00  0.0000000000000000e+00  0.0000000000000000e+00  0.0000000000000000e+00  0.0000000000000000e+00  0.0000000000000000e+00  0.0000000000000000e+00  0.0000000000000000e+00  0.0000000000000000e+00  0.0000000000000000e+00  0.0000000000000000e+00  0.0000000000000000e+00  0.0000000000000000e+00  0.0000000000000000e+00  0.0000000000000000e+00  0.0000000000000000e+00  0.0000000000000000e+00  0.0000000000000000e+00  0.0000000000000000e+00  0.0000000000000000e+00  0.0000000000000000e+00  0.0000000000000000e+00  0.0000000000000000e+00  0.0000000000000000e+00  0.0000000000000000e+00  0.0000000000000000e+00  0.0000000000000000e+00  0.0000000000000000e+00  0.0000000000000000e+00  0.0000000000000000e+00  0.0000000000000000e+00  0.0000000000000000e+00  0.0000000000000000e+00  0.0000000000000000e+00  0.0000000000000000e+00  0.0000000000000000e+00  0.0000000000000000e+00  0.0000000000000000e+00  0.0000000000000000e+00  0.0000000000000000e+00  0.0000000000000000e+00  0.0000000000000000e+00  0.0000000000000000e+00  0.0000000000000000e+00  0.0000000000000000e+00  0.0000000000000000e+00  0.0000000000000000e+00  0.0000000000000000e+00  0.0000000000000000e+00  0.0000000000000000e+00  0.0000000000000000e+00  0.0000000000000000e+00  0.0000000000000000e+00  0.0000000000000000e+00  0.0000000000000000e+00  0.0000000000000000e+00  0.0000000000000000e+00  0.0000000000000000e+00  0.0000000000000000e+00  0.0000000000000000e+00  0.0000000000000000e+00  0.0000000000000000e+00  0.0000000000000000e+00  0.0000000000000000e+00  0.0000000000000000e+00  0.0000000000000000e+00  0.0000000000000000e+00  0.0000000000000000e+00  0.0000000000000000e+00  0.0000000000000000e+00  0.0000000000000000e+00  0.0000000000000000e+00  0.0000000000000000e+00  0.0000000000000000e+00  0.0000000000000000e+00  0.0000000000000000e+00  0.0000000000000000e+00  0.0000000000000000e+00  0.0000000000000000e+00  0.0000000000000000e+00  0.0000000000000000e+00  0.0000000000000000e+00  0.0000000000000000e+00  0.0000000000000000e+00  0.0000000000000000e+00  0.0000000000000000e+00  0.0000000000000000e+00  0.0000000000000000e+00  0.0000000000000000e+00  0.0000000000000000e+00  0.0000000000000000e+00  0.0000000000000000e+00  0.0000000000000000e+00  0.0000000000000000e+00  0.0000000000000000e+00  0.0000000000000000e+00  0.0000000000000000e+00  0.0000000000000000e+00  0.0000000000000000e+00  0.0000000000000000e+00  0.0000000000000000e+00  0.0000000000000000e+00  0.0000000000000000e+00  0.0000000000000000e+00  0.0000000000000000e+00  0.0000000000000000e+00  0.0000000000000000e+00  0.0000000000000000e+00  0.0000000000000000e+00  0.0000000000000000e+00  0.0000000000000000e+00  0.0000000000000000e+00  0.0000000000000000e+00  0.0000000000000000e+00  0.0000000000000000e+00  0.0000000000000000e+00  0.0000000000000000e+00  0.0000000000000000e+00  0.0000000000000000e+00  0.0000000000000000e+00  0.0000000000000000e+00  0.0000000000000000e+00  0.0000000000000000e+00  0.0000000000000000e+00  0.0000000000000000e+00  0.0000000000000000e+00  0.0000000000000000e+00  0.0000000000000000e+00  0.0000000000000000e+00  0.0000000000000000e+00  0.0000000000000000e+00  0.0000000000000000e+00  0.0000000000000000e+00  0.0000000000000000e+00  0.0000000000000000e+00  0.0000000000000000e+00  0.0000000000000000e+00  0.0000000000000000e+00  0.0000000000000000e+00  0.0000000000000000e+00  0.0000000000000000e+00  0.0000000000000000e+00  0.0000000000000000e+00  0.0000000000000000e+00  0.0000000000000000e+00  0.0000000000000000e+00  0.0000000000000000e+00  0.0000000000000000e+00  0.0000000000000000e+00  0.0000000000000000e+00  0.0000000000000000e+00  0.0000000000000000e+00  0.0000000000000000e+00  0.0000000000000000e+00  0.0000000000000000e+00  0.0000000000000000e+00  0.0000000000000000e+00  0.0000000000000000e+00  0.0000000000000000e+00  0.0000000000000000e+00  0.0000000000000000e+00  0.0000000000000000e+00  0.0000000000000000e+00  0.0000000000000000e+00  0.0000000000000000e+00  0.0000000000000000e+00  0.0000000000000000e+00  0.0000000000000000e+00  0.0000000000000000e+00  0.0000000000000000e+00  0.0000000000000000e+00  0.0000000000000000e+00  0.0000000000000000e+00  0.0000000000000000e+00  0.0000000000000000e+00  0.0000000000000000e+00  0.0000000000000000e+00  0.0000000000000000e+00  0.0000000000000000e+00  0.0000000000000000e+00  0.0000000000000000e+00  0.0000000000000000e+00  0.0000000000000000e+00  0.0000000000000000e+00  0.0000000000000000e+00  0.0000000000000000e+00  0.0000000000000000e+00  0.0000000000000000e+00  0.0000000000000000e+00  0.0000000000000000e+00  0.0000000000000000e+00  0.0000000000000000e+00  0.0000000000000000e+00  0.0000000000000000e+00  0.0000000000000000e+00  0.0000000000000000e+00  0.0000000000000000e+00  0.0000000000000000e+00  0.0000000000000000e+00  0.0000000000000000e+00  0.0000000000000000e+00  0.0000000000000000e+00  0.0000000000000000e+00  0.0000000000000000e+00  0.0000000000000000e+00  0.0000000000000000e+00  0.0000000000000000e+00  0.0000000000000000e+00  0.0000000000000000e+00  0.0000000000000000e+00  0.0000000000000000e+00  0.0000000000000000e+00  0.0000000000000000e+00  0.0000000000000000e+00  0.0000000000000000e+00  0.0000000000000000e+00  0.0000000000000000e+00  0.0000000000000000e+00  0.0000000000000000e+00  0.0000000000000000e+00  0.0000000000000000e+00  0.0000000000000000e+00  0.0000000000000000e+00  0.0000000000000000e+00  0.0000000000000000e+00  0.0000000000000000e+00  0.0000000000000000e+00  0.0000000000000000e+00  0.0000000000000000e+00  0.0000000000000000e+00  0.0000000000000000e+00  0.0000000000000000e+00  0.0000000000000000e+00  0.0000000000000000e+00  0.0000000000000000e+00  0.0000000000000000e+00  0.0000000000000000e+00  0.0000000000000000e+00  0.0000000000000000e+00  0.0000000000000000e+00  0.0000000000000000e+00  0.0000000000000000e+00  0.0000000000000000e+00  0.0000000000000000e+00  0.0000000000000000e+00  0.0000000000000000e+00  0.0000000000000000e+00  0.0000000000000000e+00  0.0000000000000000e+00  0.0000000000000000e+00  0.0000000000000000e+00  0.0000000000000000e+00  0.0000000000000000e+00  0.0000000000000000e+00  0.0000000000000000e+00  0.0000000000000000e+00  0.0000000000000000e+00  0.0000000000000000e+00  0.0000000000000000e+00  0.0000000000000000e+00  0.0000000000000000e+00  0.0000000000000000e+00  0.0000000000000000e+00  0.0000000000000000e+00  0.0000000000000000e+00  0.0000000000000000e+00  0.0000000000000000e+00  0.0000000000000000e+00  0.0000000000000000e+00  0.0000000000000000e+00  0.0000000000000000e+00  0.0000000000000000e+00  0.0000000000000000e+00  0.0000000000000000e+00  0.0000000000000000e+00  0.0000000000000000e+00  0.0000000000000000e+00  0.0000000000000000e+00  0.0000000000000000e+00  0.0000000000000000e+00  0.0000000000000000e+00  0.0000000000000000e+00  0.0000000000000000e+00  0.0000000000000000e+00  0.0000000000000000e+00  0.0000000000000000e+00  0.0000000000000000e+00  0.0000000000000000e+00  0.0000000000000000e+00  0.0000000000000000e+00  0.0000000000000000e+00  0.0000000000000000e+00  0.0000000000000000e+00  0.0000000000000000e+00  0.0000000000000000e+00  0.0000000000000000e+00  0.0000000000000000e+00  0.0000000000000000e+00  0.0000000000000000e+00  0.0000000000000000e+00  0.0000000000000000e+00  0.0000000000000000e+00  0.0000000000000000e+00  0.0000000000000000e+00  0.0000000000000000e+00  0.0000000000000000e+00  0.0000000000000000e+00  0.0000000000000000e+00  0.0000000000000000e+00  0.0000000000000000e+00  0.0000000000000000e+00  0.0000000000000000e+00  0.0000000000000000e+00  0.0000000000000000e+00  0.0000000000000000e+00  0.0000000000000000e+00  0.0000000000000000e+00  0.0000000000000000e+00  0.0000000000000000e+00  0.0000000000000000e+00  0.0000000000000000e+00  0.0000000000000000e+00  0.0000000000000000e+00  0.0000000000000000e+00  0.0000000000000000e+00  0.0000000000000000e+00  0.0000000000000000e+00  0.0000000000000000e+00  0.0000000000000000e+00  0.0000000000000000e+00  0.0000000000000000e+00  0.0000000000000000e